LAMMPS (10 Feb 2021)
OMP_NUM_THREADS environment is not set. Defaulting to 1 thread. (src/comm.cpp:94)
  using 1 OpenMP thread(s) per MPI task
#Lammps 2009 input file generate by DFF

units          real
atom_style     full
boundary       p p p

pair_style     lj/cut/coul/long     12.0
pair_modify    mix arithmetic
pair_modify    tail yes
kspace_style   pppm 1.0e-4
dielectric     1.0
special_bonds  lj 0.0 0.0 1.0 coul 0.0 0.0 0.5
bond_style     class2
angle_style    class2
dihedral_style opls
improper_style harmonic

read_data  bin-9.data
Reading data file ...
  orthogonal box = (0.0000000 0.0000000 0.0000000) to (8.9060000 13.146600 24.138600)
  1 by 1 by 1 MPI processor grid
  reading atoms ...
  119 atoms
  scanning bonds ...
  6 = max bonds/atom
  scanning angles ...
  15 = max angles/atom
  scanning dihedrals ...
  60 = max dihedrals/atom
  scanning impropers ...
  5 = max impropers/atom
  reading bonds ...
  214 bonds
  reading angles ...
  688 angles
  reading dihedrals ...
  1817 dihedrals
  reading impropers ...
  61 impropers
Finding 1-2 1-3 1-4 neighbors ...
  special bond factors lj:    0        0        1       
  special bond factors coul:  0        0        0.5     
     6 = max # of 1-2 neighbors
    15 = max # of 1-3 neighbors
    72 = max # of 1-4 neighbors
    52 = max # of special neighbors
  special bonds CPU = 0.000 seconds
  read_data CPU = 0.007 seconds

#group surf id 1:476
#fix 1 surf setforce 0.0 0.0 0.0
#group surf type 7 9 10 11
#fix 1 surf setforce 0.0 0.0 0.0
#group surf1 id 1:108
#fix 1 surf1 setforce 0.0 0.0 0.0
#group surf2 id 117:224
#fix 2 surf2 setforce 0.0 0.0 0.0
#group surf3 id 233:340
#fix 3 surf3 setforce 0.0 0.0 0.0
#group surf4 id 349:456
#fix 4 surf4 setforce 0.0 0.0 0.0
#
#variable a1 equal 265
#variable a2 equal 348
#variable a3 equal 316
##variable a4 equal 355
#variable a4 equal 347
#variable a5 equal 355
#
#group b1 id ${a1} ${a2}
#compute b1 b1 pair/local dist
#compute Ave_b1 b1 reduce ave c_b1
#group b2 id ${a3} ${a4}
#compute b2 b2 pair/local dist
#compute Ave_b2 b2 reduce ave c_b2
#group b3 id ${a3} ${a5}
#compute b3 b3 pair/local dist
#compute Ave_b3 b3 reduce ave c_b3
#
#thermo_style custom step temp press pe density vol c_Ave_b1 c_Ave_b2 c_Ave_b3
thermo_style custom step temp press pe density vol
thermo         1

group mol molecule 2
11 atoms in group mol
dump 3 mol custom 1000 forces id type x y z fx fy fz
dump_modify 3 sort id
#dump           2 all xyz 1 min.xyz
#dump_modify    2 sort id element C01 C02 C03 H04 H05 O06 O07 O08 O09 Ti10 Ti11
run 0
WARNING: No fixes defined, atoms won't move (src/verlet.cpp:54)
PPPM initialization ...
  using 12-bit tables for long-range coulomb (src/kspace.cpp:339)
  G vector (1/distance) = 0.25251943
  grid = 8 9 15
  stencil order = 5
  estimated absolute RMS force accuracy = 0.012651127
  estimated relative force accuracy = 3.8098494e-05
  using double precision FFTW3
  3d grid and FFT values/proc = 5280 1080
Neighbor list info ...
  update every 1 steps, delay 10 steps, check yes
  max neighbors/atom: 2000, page size: 100000
  master list distance cutoff = 14
  ghost atom cutoff = 14
  binsize = 7, bins = 2 2 4
  1 neighbor lists, perpetual/occasional/extra = 1 0 0
  (1) pair lj/cut/coul/long, perpetual
      attributes: half, newton on
      pair build: half/bin/newton
      stencil: half/bin/3d/newton
      bin: standard
WARNING: Inconsistent image flags (src/domain.cpp:812)
WARNING: Bond/angle/dihedral extent > half of periodic box length (src/domain.cpp:933)
Per MPI rank memory allocation (min/avg/max) = 36.31 | 36.31 | 36.31 Mbytes
Step Temp Press PotEng Density Volume 
       0            0    254451.04    12914.165    1.7330897    2826.2347 
WARNING: Bond/angle/dihedral extent > half of periodic box length (src/domain.cpp:933)
Loop time of 1.238e-06 on 1 procs for 0 steps with 119 atoms

80.8% CPU use with 1 MPI tasks x 1 OpenMP threads

MPI task timing breakdown:
Section |  min time  |  avg time  |  max time  |%varavg| %total
---------------------------------------------------------------
Pair    | 0          | 0          | 0          |   0.0 |  0.00
Bond    | 0          | 0          | 0          |   0.0 |  0.00
Kspace  | 0          | 0          | 0          |   0.0 |  0.00
Neigh   | 0          | 0          | 0          |   0.0 |  0.00
Comm    | 0          | 0          | 0          |   0.0 |  0.00
Output  | 0          | 0          | 0          |   0.0 |  0.00
Modify  | 0          | 0          | 0          |   0.0 |  0.00
Other   |            | 1.238e-06  |            |       |100.00

Nlocal:        119.000 ave         119 max         119 min
Histogram: 1 0 0 0 0 0 0 0 0 0
Nghost:        3282.00 ave        3282 max        3282 min
Histogram: 1 0 0 0 0 0 0 0 0 0
Neighs:        33465.0 ave       33465 max       33465 min
Histogram: 1 0 0 0 0 0 0 0 0 0

Total # of neighbors = 33465
Ave neighs/atom = 281.21849
Ave special neighs/atom = 31.378151
Neighbor list builds = 0
Dangerous builds = 0
#min_style      cg
#minimize       1e-6 1e-8 1000 1000
#write_data  mini2-paa.data

Total wall time: 0:00:00
