ITEM: TIMESTEP
0
ITEM: NUMBER OF ATOMS
11
ITEM: BOX BOUNDS pp pp pp
0.0000000000000000e+00 8.9060000000000006e+00
0.0000000000000000e+00 1.3146599999999999e+01
0.0000000000000000e+00 2.4138600000000000e+01
ITEM: ATOMS id type x y z fx fy fz
109 8 4.515 8.04893 12.6191 -7.29548 -27.3128 -28.5989
110 6 4.19979 9.5457 10.9707 -16.1963 6.84759 -27.1851
111 3 7.0737 10.0995 12.9272 -1.36309 -36.1108 22.8209
112 1 4.66796 9.25934 12.0328 41.2648 15.0545 38.3934
113 2 5.591 10.3408 12.8298 -21.4316 -81.7494 17.8917
114 4 7.40714 9.16806 13.4877 -15.635 13.7528 -18.308
115 4 7.51145 10.8664 13.5228 10.0998 22.7958 13.3997
116 4 7.54771 10.1687 11.9893 15.3971 -2.27826 -30.8882
117 5 4.14021 7.43783 11.8709 15.2604 30.4561 32.3038
118 4 5.25772 10.1948 13.8568 -8.02538 10.5923 5.52364
119 4 5.35331 11.2847 12.4778 -10.2911 49.0195 -15.8886
