LAMMPS (10 Feb 2021)
OMP_NUM_THREADS environment is not set. Defaulting to 1 thread. (src/comm.cpp:94)
  using 1 OpenMP thread(s) per MPI task
#Lammps 2009 input file generate by DFF

units          real
atom_style     full
boundary       p p p

pair_style     lj/cut/coul/long     12.0
pair_modify    mix arithmetic
pair_modify    tail yes
kspace_style   pppm 1.0e-4
dielectric     1.0
special_bonds  lj 0.0 0.0 1.0 coul 0.0 0.0 0.5
bond_style     class2
angle_style    class2
dihedral_style opls
improper_style harmonic

read_data      slab.data
Reading data file ...
  orthogonal box = (0.0000000 0.0000000 0.0000000) to (8.9060000 13.146600 24.138600)
  1 by 1 by 1 MPI processor grid
  reading atoms ...
  108 atoms
  scanning bonds ...
  6 = max bonds/atom
  scanning angles ...
  15 = max angles/atom
  scanning dihedrals ...
  60 = max dihedrals/atom
  scanning impropers ...
  5 = max impropers/atom
  reading bonds ...
  204 bonds
  reading angles ...
  672 angles
  reading dihedrals ...
  1800 dihedrals
  reading impropers ...
  60 impropers
Finding 1-2 1-3 1-4 neighbors ...
  special bond factors lj:    0        0        1       
  special bond factors coul:  0        0        0.5     
     6 = max # of 1-2 neighbors
    15 = max # of 1-3 neighbors
    72 = max # of 1-4 neighbors
    52 = max # of special neighbors
  special bonds CPU = 0.000 seconds
  read_data CPU = 0.004 seconds

group surf id 1:108
108 atoms in group surf
fix 1 surf setforce 0.0 0.0 0.0
#
thermo_style custom step temp press pe density vol
thermo         1

#dump           2 all xyz 1 slab.xyz
#dump_modify    2 sort id element O1 O2 Ti3 Ti4

min_style      cg
minimize       1e-6 1e-8 1000 1000
WARNING: Using 'neigh_modify every 1 delay 0 check yes' setting during minimization (src/min.cpp:188)
PPPM initialization ...
  using 12-bit tables for long-range coulomb (src/kspace.cpp:339)
  G vector (1/distance) = 0.25251944
  grid = 8 9 15
  stencil order = 5
  estimated absolute RMS force accuracy = 0.013218656
  estimated relative force accuracy = 3.980759e-05
  using double precision FFTW3
  3d grid and FFT values/proc = 5280 1080
Neighbor list info ...
  update every 1 steps, delay 0 steps, check yes
  max neighbors/atom: 2000, page size: 100000
  master list distance cutoff = 14
  ghost atom cutoff = 14
  binsize = 7, bins = 2 2 4
  1 neighbor lists, perpetual/occasional/extra = 1 0 0
  (1) pair lj/cut/coul/long, perpetual
      attributes: half, newton on
      pair build: half/bin/newton
      stencil: half/bin/3d/newton
      bin: standard
WARNING: Inconsistent image flags (src/domain.cpp:812)
WARNING: Bond/angle/dihedral extent > half of periodic box length (src/domain.cpp:933)
Per MPI rank memory allocation (min/avg/max) = 36.15 | 36.15 | 36.15 Mbytes
Step Temp Press PotEng Density Volume 
       0            0    253705.12    12935.133    1.6895649    2826.2347 
       1            0    253705.12    12935.133    1.6895649    2826.2347 
WARNING: Bond/angle/dihedral extent > half of periodic box length (src/domain.cpp:933)
Loop time of 0.00202614 on 1 procs for 1 steps with 108 atoms

100.0% CPU use with 1 MPI tasks x 1 OpenMP threads

Minimization stats:
  Stopping criterion = search direction is not downhill
  Energy initial, next-to-last, final = 
      12935.1325958127   12935.1325958127   12935.1325958127
  Force two-norm initial, final = 0.0000000 0.0000000
  Force max component initial, final = 0.0000000 0.0000000
  Final line search alpha, max atom move = 0.0000000 0.0000000
  Iterations, force evaluations = 1 0

MPI task timing breakdown:
Section |  min time  |  avg time  |  max time  |%varavg| %total
---------------------------------------------------------------
Pair    | 0.0007926  | 0.0007926  | 0.0007926  |   0.0 | 39.12
Bond    | 0.0010666  | 0.0010666  | 0.0010666  |   0.0 | 52.64
Kspace  | 0.000137   | 0.000137   | 0.000137   |   0.0 |  6.76
Neigh   | 0          | 0          | 0          |   0.0 |  0.00
Comm    | 1.3509e-05 | 1.3509e-05 | 1.3509e-05 |   0.0 |  0.67
Output  | 0          | 0          | 0          |   0.0 |  0.00
Modify  | 7.97e-07   | 7.97e-07   | 7.97e-07   |   0.0 |  0.04
Other   |            | 1.567e-05  |            |       |  0.77

Nlocal:        108.000 ave         108 max         108 min
Histogram: 1 0 0 0 0 0 0 0 0 0
Nghost:        2861.00 ave        2861 max        2861 min
Histogram: 1 0 0 0 0 0 0 0 0 0
Neighs:        28626.0 ave       28626 max       28626 min
Histogram: 1 0 0 0 0 0 0 0 0 0

Total # of neighbors = 28626
Ave neighs/atom = 265.05556
Ave special neighs/atom = 33.777778
Neighbor list builds = 0
Dangerous builds = 0
#write_data  mini-slab.data

Total wall time: 0:00:00
